# LAMMPS data file
30 atoms
24 bonds
3 atom types
1 bond types
-30.0 30.0 xlo xhi
-30.0 30.0 ylo yhi
-30.0 30.0 zlo zhi

Masses

1 1.0
2 1.0
3 1.0

Atoms  # bond

1 1 1 -20.0 0.0 -2.0
2 1 2 -20.0 0.0 -3.0
3 1 2 -20.0 0.0 -4.0
4 1 2 -20.0 0.0 -5.0
5 1 2 -20.0 0.0 -6.0
6 1 2 -20.0 0.0 -7.0
7 1 2 -20.0 0.0 -8.0
8 1 1 -20.0 0.0 2.0
9 1 2 -20.0 0.0 3.0
10 1 2 -20.0 0.0 4.0
11 1 2 -20.0 0.0 5.0
12 1 2 -20.0 0.0 6.0
13 1 2 -20.0 0.0 7.0
14 1 2 -20.0 0.0 8.0
15 1 3 -20.0 0.0 0.0
16 2 1 -1.31134e-07 0.0 -2.0
17 2 2 -2.18557e-07 0.0 -3.0
18 2 2 -3.0598e-07 0.0 -4.0
19 2 2 -3.93403e-07 0.0 -5.0
20 2 2 -4.80825e-07 0.0 -6.0
21 2 2 -5.68248e-07 0.0 -7.0
22 2 2 -6.55671e-07 0.0 -8.0
23 2 1 0.0 0.0 2.0
24 2 2 0.0 0.0 3.0
25 2 2 0.0 0.0 4.0
26 2 2 0.0 0.0 5.0
27 2 2 0.0 0.0 6.0
28 2 2 0.0 0.0 7.0
29 2 2 0.0 0.0 8.0
30 2 3 0.0 0.0 0.0

Bonds

1 1 1 2
2 1 2 3
3 1 3 4
4 1 4 5
5 1 5 6
6 1 6 7
7 1 8 9
8 1 9 10
9 1 10 11
10 1 11 12
11 1 12 13
12 1 13 14
13 1 16 17
14 1 17 18
15 1 18 19
16 1 19 20
17 1 20 21
18 1 21 22
19 1 23 24
20 1 24 25
21 1 25 26
22 1 26 27
23 1 27 28
24 1 28 29
