# LAMMPS data file
120 atoms
96 bonds
3 atom types
1 bond types
-30.0 90.0 xlo xhi
-30.0 90.0 ylo yhi
-30.0 90.0 zlo zhi

Masses

1 1.0
2 1.0
3 1.0

Atoms  # bond

1 1 1 -20.0 0.0 -2.0
2 1 2 -20.0 0.0 -3.0
3 1 2 -20.0 0.0 -4.0
4 1 2 -20.0 0.0 -5.0
5 1 2 -20.0 0.0 -6.0
6 1 2 -20.0 0.0 -7.0
7 1 2 -20.0 0.0 -8.0
8 1 1 -20.0 0.0 2.0
9 1 2 -20.0 0.0 3.0
10 1 2 -20.0 0.0 4.0
11 1 2 -20.0 0.0 5.0
12 1 2 -20.0 0.0 6.0
13 1 2 -20.0 0.0 7.0
14 1 2 -20.0 0.0 8.0
15 1 3 -20.0 0.0 0.0
16 2 1 -1.31134e-07 0.0 -2.0
17 2 2 -2.18557e-07 0.0 -3.0
18 2 2 -3.0598e-07 0.0 -4.0
19 2 2 -3.93403e-07 0.0 -5.0
20 2 2 -4.80825e-07 0.0 -6.0
21 2 2 -5.68248e-07 0.0 -7.0
22 2 2 -6.55671e-07 0.0 -8.0
23 2 1 0.0 0.0 2.0
24 2 2 0.0 0.0 3.0
25 2 2 0.0 0.0 4.0
26 2 2 0.0 0.0 5.0
27 2 2 0.0 0.0 6.0
28 2 2 0.0 0.0 7.0
29 2 2 0.0 0.0 8.0
30 2 3 0.0 0.0 0.0
31 3 1 20.0 0.0 -2.0
32 3 2 20.0 0.0 -3.0
33 3 2 20.0 0.0 -4.0
34 3 2 20.0 0.0 -5.0
35 3 2 20.0 0.0 -6.0
36 3 2 20.0 0.0 -7.0
37 3 2 20.0 0.0 -8.0
38 3 1 20.0 0.0 2.0
39 3 2 20.0 0.0 3.0
40 3 2 20.0 0.0 4.0
41 3 2 20.0 0.0 5.0
42 3 2 20.0 0.0 6.0
43 3 2 20.0 0.0 7.0
44 3 2 20.0 0.0 8.0
45 3 3 20.0 0.0 0.0
46 4 1 -20.0 25.0 -2.0
47 4 2 -20.0 25.0 -3.0
48 4 2 -20.0 25.0 -4.0
49 4 2 -20.0 25.0 -5.0
50 4 2 -20.0 25.0 -6.0
51 4 2 -20.0 25.0 -7.0
52 4 2 -20.0 25.0 -8.0
53 4 1 -20.0 25.0 2.0
54 4 2 -20.0 25.0 3.0
55 4 2 -20.0 25.0 4.0
56 4 2 -20.0 25.0 5.0
57 4 2 -20.0 25.0 6.0
58 4 2 -20.0 25.0 7.0
59 4 2 -20.0 25.0 8.0
60 4 3 -20.0 25.0 0.0
61 5 1 40.0 0.0 -2.0
62 5 2 40.0 0.0 -3.0
63 5 2 40.0 0.0 -4.0
64 5 2 40.0 0.0 -5.0
65 5 2 40.0 0.0 -6.0
66 5 2 40.0 0.0 -7.0
67 5 2 40.0 0.0 -8.0
68 5 1 40.0 0.0 2.0
69 5 2 40.0 0.0 3.0
70 5 2 40.0 0.0 4.0
71 5 2 40.0 0.0 5.0
72 5 2 40.0 0.0 6.0
73 5 2 40.0 0.0 7.0
74 5 2 40.0 0.0 8.0
75 5 3 40.0 0.0 0.0
76 6 1 59.9999999 0.0 -2.0
77 6 2 59.9999998 0.0 -3.0
78 6 2 59.9999997 0.0 -4.0
79 6 2 59.9999996 0.0 -5.0
80 6 2 59.9999995 0.0 -6.0
81 6 2 59.9999994 0.0 -7.0
82 6 2 59.9999993 0.0 -8.0
83 6 1 60.0 0.0 2.0
84 6 2 60.0 0.0 3.0
85 6 2 60.0 0.0 4.0
86 6 2 60.0 0.0 5.0
87 6 2 60.0 0.0 6.0
88 6 2 60.0 0.0 7.0
89 6 2 60.0 0.0 8.0
90 6 3 60.0 0.0 0.0
91 7 1 80.0 0.0 -2.0
92 7 2 80.0 0.0 -3.0
93 7 2 80.0 0.0 -4.0
94 7 2 80.0 0.0 -5.0
95 7 2 80.0 0.0 -6.0
96 7 2 80.0 0.0 -7.0
97 7 2 80.0 0.0 -8.0
98 7 1 80.0 0.0 2.0
99 7 2 80.0 0.0 3.0
100 7 2 80.0 0.0 4.0
101 7 2 80.0 0.0 5.0
102 7 2 80.0 0.0 6.0
103 7 2 80.0 0.0 7.0
104 7 2 80.0 0.0 8.0
105 7 3 80.0 0.0 0.0
106 8 1 40.0 25.0 -2.0
107 8 2 40.0 25.0 -3.0
108 8 2 40.0 25.0 -4.0
109 8 2 40.0 25.0 -5.0
110 8 2 40.0 25.0 -6.0
111 8 2 40.0 25.0 -7.0
112 8 2 40.0 25.0 -8.0
113 8 1 40.0 25.0 2.0
114 8 2 40.0 25.0 3.0
115 8 2 40.0 25.0 4.0
116 8 2 40.0 25.0 5.0
117 8 2 40.0 25.0 6.0
118 8 2 40.0 25.0 7.0
119 8 2 40.0 25.0 8.0
120 8 3 40.0 25.0 0.0

Bonds

1 1 1 2
2 1 2 3
3 1 3 4
4 1 4 5
5 1 5 6
6 1 6 7
7 1 8 9
8 1 9 10
9 1 10 11
10 1 11 12
11 1 12 13
12 1 13 14
13 1 16 17
14 1 17 18
15 1 18 19
16 1 19 20
17 1 20 21
18 1 21 22
19 1 23 24
20 1 24 25
21 1 25 26
22 1 26 27
23 1 27 28
24 1 28 29
25 1 31 32
26 1 32 33
27 1 33 34
28 1 34 35
29 1 35 36
30 1 36 37
31 1 38 39
32 1 39 40
33 1 40 41
34 1 41 42
35 1 42 43
36 1 43 44
37 1 46 47
38 1 47 48
39 1 48 49
40 1 49 50
41 1 50 51
42 1 51 52
43 1 53 54
44 1 54 55
45 1 55 56
46 1 56 57
47 1 57 58
48 1 58 59
49 1 61 62
50 1 62 63
51 1 63 64
52 1 64 65
53 1 65 66
54 1 66 67
55 1 68 69
56 1 69 70
57 1 70 71
58 1 71 72
59 1 72 73
60 1 73 74
61 1 76 77
62 1 77 78
63 1 78 79
64 1 79 80
65 1 80 81
66 1 81 82
67 1 83 84
68 1 84 85
69 1 85 86
70 1 86 87
71 1 87 88
72 1 88 89
73 1 91 92
74 1 92 93
75 1 93 94
76 1 94 95
77 1 95 96
78 1 96 97
79 1 98 99
80 1 99 100
81 1 100 101
82 1 101 102
83 1 102 103
84 1 103 104
85 1 106 107
86 1 107 108
87 1 108 109
88 1 109 110
89 1 110 111
90 1 111 112
91 1 113 114
92 1 114 115
93 1 115 116
94 1 116 117
95 1 117 118
96 1 118 119
